 Gaussian 16, Revision A.03,
 Gaussian 16:  ES64L-G16RevA.03 25-Dec-2016

 ----------------------------------------------------------------------
 #p freq=(savenm,hpmodes,anharm,readanharm,RAMAN) PBE1PBE DEF2TZVP SCF=
 tight INT=ultrafinegrid
 ----------------------------------------------------------------------

 -----
 he901
 -----
 Symbolic Z-matrix:
 Charge = -2 Multiplicity = 1

                         Standard orientation:
 ---------------------------------------------------------------------
 Center     Atomic      Atomic             Coordinates (Angstroms)
 Number     Number       Type             X           Y           Z
 ---------------------------------------------------------------------
      1         53           0        0.000000    2.088174    0.000000
      2         53           0        0.000000    0.000000    4.215536
      3         29           0        0.000000    0.000000    1.644146
      4         29           0        0.000000    0.000000   -1.644146
      5         53           0       -0.000000   -2.088174    0.000000
      6         53           0        0.000000    0.000000   -4.215536
 ---------------------------------------------------------------------

 SCF Done:  E(RPBE1PBE) =  -4471.82973967     A.U. after   13 cycles
 SCF Done:  E(RPBE1PBE) =  -4471.82973967     A.U. after    4 cycles
 SCF Done:  E(RPBE1PBE) =  -4471.82973967     A.U. after    4 cycles
 SCF Done:  E(RPBE1PBE) =  -4471.82973966     A.U. after    6 cycles
 SCF Done:  E(RPBE1PBE) =  -4471.82973967     A.U. after    6 cycles
 SCF Done:  E(RPBE1PBE) =  -4471.82973966     A.U. after    5 cycles
 SCF Done:  E(RPBE1PBE) =  -4471.82973966     A.U. after    5 cycles
 SCF Done:  E(RPBE1PBE) =  -4471.82973966     A.U. after    6 cycles
 SCF Done:  E(RPBE1PBE) =  -4471.82973966     A.U. after    6 cycles
 SCF Done:  E(RPBE1PBE) =  -4471.82973964     A.U. after    5 cycles
 SCF Done:  E(RPBE1PBE) =  -4471.82973959     A.U. after    6 cycles
 SCF Done:  E(RPBE1PBE) =  -4471.82973959     A.U. after    6 cycles
 SCF Done:  E(RPBE1PBE) =  -4471.82973959     A.U. after    7 cycles
 SCF Done:  E(RPBE1PBE) =  -4471.82973959     A.U. after    7 cycles
 SCF Done:  E(RPBE1PBE) =  -4471.82973955     A.U. after    7 cycles
 SCF Done:  E(RPBE1PBE) =  -4471.82973955     A.U. after    7 cycles
 SCF Done:  E(RPBE1PBE) =  -4471.82973947     A.U. after    7 cycles
 SCF Done:  E(RPBE1PBE) =  -4471.82973947     A.U. after    7 cycles
 SCF Done:  E(RPBE1PBE) =  -4471.82973945     A.U. after    7 cycles
 SCF Done:  E(RPBE1PBE) =  -4471.82973945     A.U. after    7 cycles

 Alpha  occ. eigenvalues -- -323.06014-323.06014 -38.65598 -38.65597 -33.82450
 Alpha  occ. eigenvalues --  -33.82450 -33.82234 -33.82234 -33.82202 -33.82202
 Alpha  occ. eigenvalues --   -6.62698  -6.62698  -6.61144  -6.61143  -4.63499
 Alpha  occ. eigenvalues --   -4.63499  -4.63433  -4.63433  -4.63282  -4.63282
 Alpha  occ. eigenvalues --   -4.62027  -4.62027  -4.61780  -4.61780  -4.61743
 Alpha  occ. eigenvalues --   -4.61743  -4.08027  -4.08026  -2.56017  -2.56017
 Alpha  occ. eigenvalues --   -2.55942  -2.55937  -2.55768  -2.55768  -1.66271
 Alpha  occ. eigenvalues --   -1.66271  -1.66253  -1.66251  -1.66109  -1.66109
 Alpha  occ. eigenvalues --   -1.66048  -1.66047  -1.66027  -1.66027  -1.64765
 Alpha  occ. eigenvalues --   -1.64765  -1.64673  -1.64672  -1.64640  -1.64640
 Alpha  occ. eigenvalues --   -1.64420  -1.64420  -1.64419  -1.64419  -0.43863
 Alpha  occ. eigenvalues --   -0.43141  -0.41741  -0.41701  -0.09992  -0.08105
 Alpha  occ. eigenvalues --   -0.07107  -0.06215  -0.05945  -0.05367  -0.05291
 Alpha  occ. eigenvalues --   -0.04838  -0.03999  -0.03162  -0.02963  -0.02801
 Alpha  occ. eigenvalues --   -0.02659  -0.02134  -0.01809  -0.01269  -0.00278
 Alpha  occ. eigenvalues --   -0.00060   0.00272   0.01151   0.02211   0.02679
 Alpha virt. eigenvalues --    0.22004   0.24288   0.27643   0.30534   0.31691
 Alpha virt. eigenvalues --    0.32234   0.33336   0.33799   0.36464   0.36558
 Alpha virt. eigenvalues --    0.37072   0.37939   0.38265   0.38577   0.38601

 Mulliken charges:
               1
     1  I   -0.586807
     2  I   -0.702583
     3  Cu   0.289389
     4  Cu   0.289389
     5  I   -0.586807
     6  I   -0.702583
 Sum of Mulliken charges =  -2.00000

 Dipole moment (field-independent basis, Debye):
    X=             -0.0000    Y=             -0.0000    Z=              0.0000  Tot=              0.0000
 Quadrupole moment (field-independent basis, Debye-Ang):
   XX=           -146.9231   YY=           -169.2294   ZZ=           -262.2029
   XY=             -0.0000   XZ=              0.0000   YZ=              0.0000

  Exact polarizability: 128.479   0.000 198.068  -0.000  -0.000 268.573
 Approx polarizability: 229.702   0.000 304.278  -0.000  -0.000 341.770

                      1                      2                      3
                     B3U                    AG                     B2U
 Frequencies --      6.0481                25.3855                31.4345
 Red. masses --    125.9642                99.6501               112.5897
 Frc consts  --      0.0027                 0.0378                 0.0655
 IR Inten    --      0.4633                 0.0000                 1.1762
 Raman Activ --      0.0000                 1.2716                 0.0000

                      4                      5                      6
                     B3G                    B2G                    B3U
 Frequencies --     40.4378                68.7170                73.3148
 Red. masses --     96.3963                65.2363                70.2216
 Frc consts  --      0.0929                 0.1815                 0.2224
 IR Inten    --      0.0000                 0.0000                 2.2144
 Raman Activ --      1.4502                 0.4967                 0.0000

                      7                      8                      9
                     B1U                    AG                     B3G
 Frequencies --     91.3778               106.3473               107.2180
 Red. masses --    123.3143               126.7794                77.2820
 Frc consts  --      0.6067                 0.8448                 0.5234
 IR Inten    --      0.1643                 0.0000                 0.0000
 Raman Activ --      0.0000                 2.7692                 0.0291

                     10                     11                     12
                     B2U                    B1U                    AG
 Frequencies --    131.5613               171.1134               178.8926
 Red. masses --     75.2016                71.0731                72.8421
 Frc consts  --      0.7669                 1.2261                 1.3735
 IR Inten    --     30.6842                65.2730                 0.0000
 Raman Activ --      0.0000                 0.0000                 1.7193

 - Thermochemistry -
 -------------------
 Temperature   298.150 Kelvin.  Pressure   1.00000 Atm.
 Atom     1 has atomic number 53 and mass 126.90040

 Molecular mass:   633.46080 amu.
 Principal axes and moments of inertia in atomic units:
                           1         2         3
     Eigenvalues --  3952.06509********************
           X           -0.00000  -0.00000   1.00000
           Y            0.00000   1.00000   0.00000
           Z            1.00000  -0.00000   0.00000
 This molecule is an asymmetric top.
 Rotational symmetry number  4.
 Warning -- assumption of classical behavior for rotation
           may cause significant error
 Rotational temperatures (Kelvin)      0.02192     0.00500     0.00407
 Rotational constants (GHZ):           0.45666     0.10419     0.08484
 Zero-point vibrational energy       6171.8 (Joules/Mol)
                                    1.47510 (Kcal/Mol)
 Warning -- explicit consideration of  12 degrees of freedom as
           vibrations may cause significant error
 Vibrational temperatures:      8.70    36.52    45.23    58.18    98.87
          (Kelvin)            105.48   131.47   153.01   154.26   189.29
                              246.19   257.39

 Zero-point correction=                           0.002351 (Hartree/Particle)
 Thermal correction to Energy=                    0.014387
 Thermal correction to Enthalpy=                  0.015331
 Thermal correction to Gibbs Free Energy=        -0.046657
 Sum of electronic and zero-point Energies=          -4471.827389
 Sum of electronic and thermal Energies=             -4471.815353
 Sum of electronic and thermal Enthalpies=           -4471.814409
 Sum of electronic and thermal Free Energies=        -4471.876396

                     E (Thermal)             CV                S
                      KCal/Mol        Cal/Mol-Kelvin    Cal/Mol-Kelvin
 Total                    9.028             29.344            130.464
 Electronic               0.000              0.000              0.000
 Translational            0.889              2.981             45.221
 Rotational               0.889              2.981             32.876
 Vibrational              7.250             23.383             52.367
 Vibration     1          0.593              1.987              9.010
 Vibration     2          0.593              1.985              6.161
 Vibration     3          0.594              1.983              5.737
 Vibration     4          0.594              1.981              5.238
 Vibration     5          0.598              1.969              4.190
 Vibration     6          0.599              1.967              4.062
 Vibration     7          0.602              1.955              3.630
 Vibration     8          0.605              1.944              3.335
 Vibration     9          0.606              1.943              3.319
 Vibration    10          0.612              1.922              2.923
 Vibration    11          0.626              1.878              2.423
 Vibration    12          0.629              1.868              2.340

 ## DEPERTURBED TRANSITIONS MOMENTS ##

 Electric dipole : Fundamental Bands
 ------------------------------------------------------------------------

 ## AFTER VARIATIONAL CORRECTION

 Electric dipole : Fundamental Bands
 ------------------------------------------------------------------------

 ## DEPERTURBED TRANSITIONS MOMENTS ##

 Polarizability tensor [Alpha(0,0)]  : Fundamental Bands
 ------------------------------------------------------------------------

 ## AFTER VARIATIONAL CORRECTION

 Polarizability tensor [Alpha(0,0)]  : Fundamental Bands
 ------------------------------------------------------------------------

 Optimization completed.
    -- Stationary point found.
 Normal termination of Gaussian 16 at Tue Sep 26 10:52:43 2023.
